# LAMMPS data file written by OVITO Basic 3.14.1

1577 atoms
7 atom types

0.0 15.337 xlo xhi
0.0 15.337 ylo yhi
0.0 90.0 zlo zhi

Atoms  # atomic

1 1 1.72955 1.40579 1.2429
2 1 0.437411 0.352291 2.9736
3 1 1.73446 1.64106 4.8402
4 1 0.602864 0.425929 6.79318
5 1 1.73063 3.96323 1.2555
6 1 0.438792 2.93075 2.988
7 1 1.68048 4.17596 4.833
8 1 0.682793 3.05122 6.66105
9 1 1.72863 6.52283 1.2447
10 1 0.433577 5.5115 2.9952
11 1 1.68492 6.82512 4.8834
12 1 0.389512 5.6242 6.63162
13 1 4.28516 1.4041 1.2411
14 1 3.01372 0.360113 2.9898
15 1 4.26798 1.58569 4.9032
16 1 2.96709 0.288912 6.68177
17 1 4.28424 3.95756 1.2582
18 1 3.00897 2.91234 3.0087
19 1 4.30878 4.16875 4.8195
20 1 3.14508 2.78197 6.47153
21 1 4.28086 6.51792 1.2528
22 1 3.00068 5.50046 3.0384
23 1 4.33592 6.80472 4.8492
24 1 3.05916 5.33009 6.38962
25 1 6.83831 1.3995 1.2375
26 1 5.55874 0.358119 3.0186
27 1 6.8334 1.60394 4.923
28 1 5.40958 0.238164 6.77149
29 1 6.83831 3.95342 1.2573
30 1 5.55874 2.89379 3.0114
31 1 6.84276 4.22381 4.8384
32 1 5.51775 2.85608 6.66182
33 1 6.83954 6.51592 1.2546
34 1 5.56242 5.48896 3.0024
35 1 6.8492 6.74935 4.9239
36 1 5.58397 5.44163 6.67086
37 1 9.39054 1.40027 1.2222
38 1 8.10806 0.367935 3.0384
39 1 9.40342 1.62143 4.8528
40 1 7.96818 0.176375 7.5807
41 1 9.39683 3.95434 1.242
42 1 8.11695 2.90084 3.024
43 1 9.42474 4.20203 4.8474
44 1 8.02877 3.02752 7.3494
45 1 9.39851 6.52175 1.2438
46 1 8.1303 5.48957 2.9934
47 1 9.38839 6.75058 4.9284
48 1 8.05361 5.61104 7.5942
49 1 11.9455 1.40656 1.2249
50 1 10.6538 0.359806 2.9943
51 1 11.9509 1.63508 4.8555
52 1 10.8088 0.322537 7.3764
53 1 11.9489 3.95741 1.251
54 1 10.6788 2.9125 3.0204
55 1 11.9767 4.21384 4.9032
56 1 10.8002 3.04777 7.4466
57 1 11.9481 6.52405 1.2393
58 1 10.681 5.49233 3.006
59 1 11.9612 6.74169 4.9086
60 1 10.5585 5.49908 7.5474
61 1 14.5114 1.40456 1.224
62 1 13.2208 0.34861 2.9394
63 1 14.4998 1.61483 4.8564
64 1 13.3274 0.386953 7.389
65 1 14.5088 3.96584 1.2375
66 1 13.2404 2.91679 2.9754
67 1 14.4929 4.20142 4.8762
68 1 13.2521 2.99501 7.5042
69 1 14.5065 6.52681 1.2303
70 1 13.2317 5.50905 2.988
71 1 14.4866 6.76009 4.9086
72 1 12.9693 5.35255 6.63912
73 1 1.72327 9.07475 1.2519
74 1 0.429436 8.05852 3.0096
75 1 1.70409 9.32029 4.95
76 1 0.406369 8.18764 6.55942
77 1 1.72557 11.625 1.2519
78 1 0.41732 10.5951 3.0177
79 1 1.70532 11.8635 4.923
80 1 0.555445 10.8292 6.66359
81 1 1.72833 14.1774 1.2411
82 1 0.426215 13.1366 2.9934
83 1 1.71912 14.3846 4.8582
84 1 0.497178 13.2438 6.56933
85 1 4.27948 9.0703 1.251
86 1 2.98703 8.06205 3.0312
87 1 4.26399 9.31493 4.9284
88 1 2.91596 7.94628 6.61899
89 1 4.28562 11.6305 1.2555
90 1 2.99593 10.5959 3.0366
91 1 4.26001 11.8954 4.923
92 1 3.09175 10.6088 6.60704
93 1 4.28838 14.1846 1.2303
94 1 3.01004 13.1587 3.0141
95 1 4.26829 14.4217 4.9644
96 1 2.99574 13.1649 6.73887
97 1 6.83754 9.07107 1.2492
98 1 5.56273 8.04671 3.0087
99 1 6.83892 9.31217 4.8906
100 1 5.42393 8.12851 6.66933
101 1 6.83846 11.6362 1.2609
102 1 5.55706 10.6066 3.0366
103 1 6.84383 11.8776 4.9266
104 1 5.65942 10.5794 6.72198
105 1 6.84184 14.1867 1.2465
106 1 5.55613 13.1759 3.0447
107 1 6.83785 14.4234 4.9374
108 1 5.57746 13.1254 6.68735
109 1 9.39836 9.07674 1.2501
110 1 8.13413 8.0464 3.033
111 1 9.39959 9.32367 4.9104
112 1 8.02374 8.1817 6.65678
113 1 9.39207 11.6311 1.2645
114 1 8.11404 10.5999 3.0303
115 1 9.38456 11.8759 4.9383
116 1 8.07326 10.6733 6.65705
117 1 9.39008 14.1824 1.2357
118 1 8.1099 13.1648 3.0429
119 1 9.36631 14.406 4.9194
120 1 8.19899 13.1626 6.76672
121 1 11.9509 9.0726 1.2321
122 1 10.6822 8.04625 3.0375
123 1 11.9679 9.2976 4.9005
124 1 10.8177 8.13184 6.70539
125 1 11.9449 11.6233 1.2321
126 1 10.6871 10.5939 3.024
127 1 11.913 11.8521 4.8978
128 1 10.5389 10.4993 6.68277
129 1 11.9351 14.1824 1.2132
130 1 10.6581 13.1403 3.0051
131 1 11.9305 14.4024 4.8537
132 1 10.7557 13.1659 7.4799
133 1 14.5042 9.07475 1.2303
134 1 13.2277 8.05821 3.0132
135 1 14.5016 9.3068 4.9302
136 1 13.2533 7.95091 6.76187
137 1 14.4967 11.6221 1.2393
138 1 13.22 10.5775 3.0231
139 1 14.5005 11.8641 4.8996
140 1 13.335 10.6709 6.6447
141 1 14.5019 14.1725 1.2195
142 1 13.1986 13.1279 2.9727
143 1 14.5065 14.4079 4.9059
144 1 13.3509 13.2559 6.67515
145 2 11.7664 4.00618 13.3029
146 2 9.54452 11.2563 14.5683
147 2 10.0531 6.48448 15.6852
148 2 8.98487 13.4291 13.1724
149 2 11.3616 12.8001 13.5045
150 2 9.91031 11.8153 10.9944
151 2 10.877 5.32991 15.7419
152 2 10.723 4.48883 14.4981
153 2 9.41324 4.12167 14.0724
154 2 10.0904 2.90069 11.2851
155 2 11.4376 3.18795 11.7189
156 2 10.4039 10.0063 14.3748
157 2 9.80004 8.90972 15.6528
158 3 10.4042 4.21399 17.3124
159 4 8.71663 6.34016 16.074
160 4 10.1914 0.378679 16.4659
161 4 14.5737 11.6352 18.5235
162 4 7.51128 12.7086 17.7123
163 4 2.43901 7.14237 17.3669
164 4 13.92 14.0668 8.42814
165 4 14.9705 11.265 8.95176
166 4 12.0266 8.3285 8.49972
167 4 12.419 13.8377 10.429
168 4 1.31233 10.5005 12.6773
169 4 13.2138 7.1759 12.6317
170 4 0.828606 14.9932 8.66431
171 4 0.46245 4.39325 8.18309
172 4 1.61702 12.2269 14.9046
173 4 6.73266 8.30511 8.19205
174 4 12.0477 15.0665 14.9512
175 4 5.05673 13.0857 17.6118
176 4 15.2939 1.6941 9.76727
177 4 6.24244 5.79672 8.529
178 4 13.3399 4.9669 8.56537
179 4 1.8372 4.78153 10.6928
180 4 15.3061 2.5553 13.457
181 4 12.8329 1.11594 10.4202
182 4 6.23924 10.1645 9.83165
183 4 14.7159 1.75304 6.84261
184 4 7.7078 10.3674 16.9597
185 4 12.5466 10.2938 9.89897
186 4 8.08581 14.4796 15.8398
187 4 9.50941 15.3783 8.90606
188 4 6.36313 13.0221 21.8713
189 4 9.32708 7.00541 6.96388
190 4 5.39365 0.578718 12.5703
191 4 11.8745 1.63079 8.05356
192 4 0.837583 6.53489 13.0302
193 4 4.03857 5.99256 10.4086
194 4 7.28029 13.0655 9.89065
195 4 8.05011 9.0595 22.3509
196 4 9.15798 8.83303 18.4305
197 4 9.27325 4.13968 8.35348
198 4 6.67682 1.55584 7.87859
199 4 4.4496 8.23097 11.8117
200 4 6.14597 1.95885 10.2217
201 4 9.15638 8.00961 9.65526
202 4 12.9975 1.36117 13.0535
203 4 2.7035 8.40693 13.4317
204 4 3.6504 9.01784 15.8497
205 4 4.45604 0.100817 16.2139
206 4 1.62897 11.5006 10.3902
207 4 2.63863 14.0314 10.2364
208 4 14.4598 12.008 16.0979
209 4 9.38591 10.1003 20.6437
210 4 14.6771 7.65652 19.7584
211 4 6.30783 4.60077 10.6733
212 4 2.96493 11.4365 16.9366
213 4 4.24741 5.65322 18.3623
214 4 7.97299 6.76677 19.0227
215 4 3.68074 10.5511 22.8667
216 4 14.1423 4.21958 22.4629
217 4 12.3098 3.69513 23.9945
218 4 13.1992 9.46944 19.2326
219 4 6.25707 3.6807 24.0975
220 4 10.0115 14.568 20.7556
221 4 6.33127 6.61325 17.2381
222 4 1.47271 2.3903 17.2619
223 4 1.57747 10.8337 19.135
224 4 1.5276 2.17968 11.7095
225 4 11.2288 3.04583 19.9928
226 4 5.47982 14.5786 9.85265
227 4 6.60592 0.987438 14.918
228 4 6.68386 8.42004 12.7246
229 4 3.4472 9.77492 9.76775
230 4 13.8664 9.68475 12.0357
231 4 12.6159 13.0409 24.041
232 4 8.16716 12.6615 20.2833
233 4 8.16165 5.11782 22.9069
234 4 13.4875 15.3125 18.754
235 4 10.9301 0.559596 19.0166
236 4 0.669 5.15249 16.8274
237 4 2.63608 14.7465 14.654
238 4 0.60676 0.92845 15.3727
239 4 11.9966 12.8368 21.3809
240 4 1.67661 8.35708 25.6409
241 4 4.30866 3.98642 22.4135
242 4 6.28507 10.8042 23.2631
243 4 1.70639 8.33981 19.6689
244 4 3.85951 1.80384 17.7189
245 4 7.36554 6.88082 21.2788
246 4 9.88884 3.12992 22.2615
247 4 15.0219 0.846698 25.1662
248 4 1.59858 1.24347 21.5509
249 4 13.9344 14.5368 16.1943
250 4 0.724279 0.976024 27.6053
251 4 11.7194 10.1214 21.4105
252 4 13.933 5.77074 18.2035
253 4 12.5528 1.57272 25.4827
254 4 15.0318 13.841 23.9515
255 4 15.3509 1.83402 19.3794
256 4 6.28549 1.78612 27.7871
257 4 8.87736 6.207 25.2227
258 4 2.96615 8.21792 21.8319
259 4 13.6216 3.64155 19.9995
260 4 7.24151 15.041 23.2284
261 4 4.4882 13.749 20.3072
262 4 6.16441 1.50567 22.0622
263 4 0.605182 2.7616 23.6539
264 4 14.1783 6.86421 22.6006
265 4 -0.0540402 13.1962 30.0502
266 4 5.6703 4.03476 26.6208
267 4 4.80535 6.08851 21.0129
268 4 12.4279 6.4895 10.1524
269 4 1.60864 6.94957 23.2389
270 4 0.870235 12.305 25.8221
271 4 14.066 13.3706 20.1638
272 4 0.726225 14.0499 21.8682
273 4 3.02378 0.407826 12.2171
274 4 11.5273 9.20075 24.273
275 4 2.87461 10.4606 25.1455
276 4 13.1122 7.49443 25.0458
277 4 7.20263 8.27972 28.6058
278 4 5.94918 8.8413 15.5296
279 4 15.1549 4.93937 14.434
280 4 10.0619 0.536636 28.7329
281 4 9.47461 0.51451 22.8309
282 4 6.93692 14.1136 26.2907
283 4 4.22133 1.4033 28.9916
284 4 2.56049 12.342 21.1782
285 4 4.90922 8.86602 28.4359
286 4 3.37099 4.77385 26.5987
287 4 10.9597 15.2105 24.7824
288 4 14.2252 2.69226 33.0821
289 4 12.0755 4.47123 33.2787
290 4 8.34929 14.9371 33.5812
291 4 4.89267 1.63851 31.6498
292 4 8.18189 10.0631 26.8674
293 4 1.57318 13.7513 27.9434
294 4 3.90948 1.06845 20.4476
295 4 13.997 15.3863 33.2272
296 4 3.93806 13.2424 28.6282
297 4 4.42745 10.9564 26.9479
298 4 8.32108 5.31407 38.719
299 4 14.1267 1.74335 29.2703
300 4 4.46349 9.82399 30.8108
301 4 10.0971 11.9628 27.3831
302 4 1.36052 12.5166 31.9398
303 4 7.59759 5.81838 27.2565
304 4 9.13909 8.75049 24.8125
305 4 2.41801 4.65745 24.2406
306 4 2.46727 8.33777 31.6055
307 4 9.55618 14.315 26.6472
308 4 1.73493 6.93797 29.4595
309 4 6.32212 11.8113 25.7711
310 4 8.25377 8.47012 30.7836
311 4 11.1292 14.1296 30.5983
312 4 0.747243 3.38842 34.979
313 4 12.8198 5.41166 29.8601
314 4 13.446 11.1762 29.2542
315 4 2.62772 4.31126 33.1027
316 4 7.98785 2.11913 29.6669
317 4 2.55764 2.93697 28.2915
318 4 10.2532 13.6503 32.8211
319 4 5.36627 7.42312 34.2425
320 4 7.60333 1.70729 32.1617
321 4 14.1013 9.18796 30.5884
322 4 8.33253 4.12825 33.1872
323 4 14.5534 3.70712 30.6991
324 4 9.67281 11.3682 33.76
325 4 4.64525 3.42742 33.9706
326 4 11.8452 8.54583 32.1235
327 4 10.1893 3.53939 34.9558
328 4 7.1411 11.1786 34.3167
329 4 11.4635 5.57362 25.6267
330 4 7.41636 11.8345 46.6496
331 4 4.55575 14.3155 33.0408
332 4 5.61155 14.8804 28.2747
333 4 3.09737 7.05853 33.8278
334 4 11.3417 6.22029 31.608
335 4 12.1097 11.1777 25.6964
336 4 6.2814 9.41742 32.392
337 4 13.4825 14.9325 30.7485
338 4 9.92365 10.1951 31.2484
339 4 9.89587 0.953727 35.3977
340 4 11.4005 4.61527 28.0323
341 4 11.8132 2.13476 27.7759
342 4 14.5616 7.47239 29.0794
343 4 0.615778 10.1355 32.3303
344 4 12.4136 14.2813 34.8952
345 4 10.9229 11.754 29.5201
346 4 2.89375 7.06042 27.3857
347 4 1.8903 4.5181 30.4583
348 4 8.88006 4.6798 29.1023
349 4 9.05416 6.03915 31.1835
350 4 3.76954 12.4137 31.3029
351 4 13.5398 6.22314 34.3881
352 4 5.30062 0.188952 42.9903
353 4 0.830499 2.98075 39.0447
354 4 1.49137 9.77979 45.0855
355 4 6.13894 14.1807 37.4049
356 4 12.2933 11.8258 40.8153
357 4 3.63103 10.885 38.4588
358 4 12.3995 4.59435 36.7227
359 4 12.1575 4.08179 39.4704
360 4 6.24829 3.66156 39.3759
361 4 12.7789 13.6381 39.3084
362 4 8.21741 6.64583 36.6084
363 4 1.76406 8.60222 41.3208
364 4 4.39328 4.38807 38.1807
365 4 6.0871 11.727 38.5614
366 4 9.95663 3.58104 38.0052
367 4 9.77167 1.28815 37.8467
368 4 1.7863 1.61361 36.756
369 4 9.28731 15.2668 51.9666
370 4 12.7305 2.06773 40.8771
371 4 0.0446307 14.3562 39.7809
372 4 6.48479 2.18384 43.236
373 4 9.14484 6.84705 40.5594
374 4 6.94509 10.0706 36.7248
375 4 12.7737 8.99315 34.6035
376 4 4.47268 0.981167 49.0703
377 4 9.46756 9.06825 39.9715
378 4 15.1864 5.77668 36.2354
379 4 11.0544 0.0165521 39.7972
380 4 7.27884 14.6509 41.5575
381 4 14.7278 8.86046 41.9747
382 4 3.12786 8.43569 37.5721
383 4 8.32514 2.59354 44.8187
384 4 15.0008 1.506 40.8058
385 4 11.5423 5.9 41.2647
386 4 -0.225707 8.20911 54.3498
387 4 13.164 11.1638 44.4827
388 4 7.19382 0.769513 39.1658
389 4 9.41939 3.88245 50.4092
390 4 3.82178 5.02454 42.0887
391 4 0.907429 1.87462 44.4718
392 4 14.3738 8.27776 44.6486
393 4 6.70526 13.5424 34.6906
394 4 12.3387 2.44708 43.5851
395 4 3.01321 0.114245 46.9186
396 4 9.64984 14.7991 42.0473
397 4 0.740906 12.8436 41.7408
398 4 1.19115 7.66513 35.6225
399 4 0.796803 6.72324 46.3071
400 4 8.60927 15.0826 49.5539
401 4 6.40045 8.52574 49.2989
402 4 4.44187 2.17902 36.348
403 4 7.41291 14.4996 53.6277
404 4 11.6923 9.73671 39.687
405 4 13.0006 12.4956 36.7135
406 4 13.35 7.47901 40.5814
407 4 4.58249 1.5981 44.7617
408 4 14.8221 14.7421 51.6125
409 4 8.47683 2.2088 48.5058
410 4 0.230365 14.9892 36.4424
411 4 14.5026 2.59131 46.1131
412 4 0.47107 5.84514 54.5001
413 4 10.29 9.32387 47.8144
414 4 5.54708 13.8227 52.1981
415 4 14.281 11.2182 42.0234
416 4 7.98417 12.4729 55.1069
417 4 9.17427 9.03519 37.3385
418 4 1.90384 7.94224 48.5876
419 4 12.9887 8.80851 55.6668
420 4 1.32604 11.3857 47.382
421 4 5.26981 9.29539 43.9949
422 4 4.89662 11.493 42.5761
423 4 11.5271 4.86785 43.5756
424 4 0.125816 12.3217 35.9865
425 4 8.34614 8.75019 53.6914
426 4 2.76944 3.35875 43.9855
427 4 6.89453 1.07427 55.2123
428 4 14.3319 4.89962 46.9871
429 4 8.88757 4.8706 44.519
430 4 15.0942 9.77752 34.7184
431 4 2.70261 5.37575 55.4589
432 4 11.2741 10.4274 35.9182
433 4 6.61878 12.1025 41.1123
434 4 5.6765 12.5507 48.2156
435 4 6.41979 4.96727 34.7328
436 4 15.5035 1.4145 50.1797
437 4 10.771 6.56775 46.7822
438 4 14.4089 4.7492 38.4227
439 4 3.78404 14.5615 36.9912
440 4 6.21031 14.5341 49.8347
441 4 7.68735 6.30764 42.577
442 4 4.83808 10.5636 49.6317
443 4 4.79055 11.4643 52.5226
444 4 1.94027 13.1062 37.9625
445 4 4.29758 6.9607 48.8583
446 4 11.1337 5.82369 49.2418
447 4 0.340794 15.5239 47.841
448 4 7.42133 6.97385 54.9022
449 4 12.9023 12.7155 46.7624
450 4 3.03981 10.9643 41.0136
451 4 2.38652 10.2813 49.3714
452 4 8.43496 10.5049 41.8937
453 4 10.3818 12.0136 54.2878
454 4 14.9215 13.1163 47.9837
455 4 12.6559 6.46318 45.349
456 4 1.53961 7.29069 39.362
457 4 2.96741 3.90804 51.8606
458 4 6.44387 10.4376 54.5275
459 4 8.33938 3.12666 54.5558
460 4 1.87033 10.1841 55.2845
461 4 11.7689 12.7412 56.2157
462 4 2.70835 5.96865 45.0391
463 4 9.57482 13.2866 47.4584
464 4 0.168109 6.79975 50.4568
465 4 5.61543 8.17079 36.5179
466 4 5.14545 9.5726 58.4596
467 4 8.06915 7.61817 51.0571
468 4 6.03061 4.21032 41.647
469 4 10.8469 14.0314 45.3286
470 4 0.480736 13.8733 56.0629
471 4 14.4098 1.16613 61.3678
472 4 4.63625 1.66012 54.7532
473 4 5.92261 3.04357 60.3884
474 4 2.87537 0.300271 34.841
475 4 9.95009 2.61224 52.5729
476 4 1.44389 14.2598 53.6833
477 4 10.209 13.3647 58.3794
478 4 10.1198 0.90571 44.2547
479 4 5.95482 2.95978 48.2913
480 4 14.4838 12.4088 50.4774
481 4 12.3336 6.822 56.937
482 4 13.4324 14.5476 55.7041
483 4 9.93936 3.61431 56.3632
484 4 0.570417 4.85299 52.1682
485 4 0.723751 11.4176 57.0112
486 4 3.9597 13.4853 43.9992
487 4 12.4563 3.0856 55.7277
488 4 13.6005 5.30568 49.3056
489 4 11.962 9.20336 51.7203
490 4 4.16579 3.89192 53.9758
491 4 2.65969 1.70389 51.0248
492 4 1.42605 11.5087 59.5361
493 4 5.75813 7.19657 58.5121
494 4 2.43348 5.08249 39.8372
495 4 14.6331 8.52172 51.9222
496 4 3.49402 12.922 46.4119
497 4 2.79702 4.23954 57.6374
498 4 8.35147 3.82683 60.2602
499 4 3.65889 0.130434 52.8391
500 4 0.201748 3.99357 58.2177
501 4 3.42225 1.60929 57.2623
502 4 9.16607 2.073 58.5385
503 4 14.8645 1.70912 58.7605
504 4 12.281 7.62614 59.4686
505 4 6.92676 10.7927 59.4884
506 4 14.0497 3.16252 51.2335
507 4 1.29365 0.148718 57.7871
508 4 4.85066 5.0464 50.274
509 4 12.6813 15.3371 53.0806
510 4 9.54 6.29386 56.6643
511 4 4.40998 9.67665 55.8675
512 4 13.9855 5.02193 56.5078
513 4 4.14837 5.37507 59.488
514 4 4.69069 7.1464 55.8135
515 4 7.61 8.80294 43.3525
516 4 6.73748 4.93693 53.7644
517 4 11.6884 11.919 50.7142
518 4 3.32784 7.57813 42.8955
519 4 7.42458 5.34731 51.3228
520 4 5.32149 1.13874 58.9278
521 4 11.1244 11.7699 48.1299
522 4 10.4274 8.07657 50.2856
523 4 12.5027 2.40747 53.2891
524 4 9.77639 7.64899 60.554
525 4 8.02841 7.07735 64.5881
526 4 7.74903 13.0975 57.6729
527 4 3.31202 1.88721 69.8677
528 4 10.2252 12.4761 42.4449
529 4 7.31284 0.3402 57.6565
530 4 0.1161 4.83983 60.7069
531 4 3.2674 9.76523 60.676
532 4 14.8824 10.9276 60.8425
533 4 9.19189 10.2376 61.183
534 4 8.16922 6.28817 59.0577
535 4 10.9991 0.674532 59.0854
536 4 4.40475 15.5257 62.7371
537 4 12.8316 10.2538 59.4632
538 4 11.7117 0.830892 61.5597
539 4 12.7348 1.10504 57.0989
540 4 2.43128 8.03189 62.0044
541 4 7.96539 9.50828 47.2678
542 4 3.29831 8.21258 64.492
543 4 15.2254 8.93265 62.1577
544 4 2.56748 5.76405 61.1548
545 4 8.80022 9.27708 64.907
546 4 11.5613 13.5901 62.0743
547 4 0.902083 10.5661 51.3924
548 4 2.07655 14.0402 60.1015
549 4 2.49036 5.03383 67.2512
550 4 8.64803 11.2079 63.4856
551 4 4.49872 14.4107 60.5384
552 4 1.3177 2.7559 64.233
553 4 5.28347 2.68315 62.6422
554 4 0.549321 14.7139 61.9364
555 4 9.79903 0.43651 65.3892
556 4 13.7962 6.78841 61.3025
557 4 9.75976 6.57638 62.854
558 4 7.07933 8.22981 66.4117
559 4 7.53413 1.11403 65.4419
560 4 6.34636 11.7467 63.841
561 4 13.4755 10.7114 57.1016
562 4 1.82232 10.1021 69.9964
563 4 12.2566 11.5372 71.6659
564 4 7.39858 9.18129 69.0272
565 4 10.8166 2.25028 63.529
566 4 3.99203 5.85418 65.1615
567 4 15.0241 11.7371 71.1128
568 4 6.51011 5.40994 65.5661
569 4 7.09412 3.20579 64.1113
570 4 0.789921 13.7765 33.8457
571 4 1.29724 8.90806 65.9112
572 4 7.08188 1.48823 67.8568
573 4 12.5775 3.67747 64.2411
574 4 4.13776 4.04609 69.3867
575 4 10.303 13.4899 64.0787
576 4 14.6459 3.1912 62.6357
577 4 5.40629 11.5775 61.2749
578 4 5.23786 -0.015654 68.8044
579 4 12.0866 6.08157 63.3639
580 4 4.30858 13.9906 66.691
581 4 9.12215 3.98232 62.9926
582 4 10.9128 0.27453 67.7033
583 4 13.3394 6.35419 67.3819
584 4 3.86788 10.4503 71.0688
585 4 0.418178 12.667 66.7575
586 4 0.591666 3.22107 66.6989
587 4 5.55569 11.3336 69.6554
588 4 11.0304 9.55381 66.2256
589 4 5.33658 9.99938 65.2564
590 4 11.9394 6.30301 69.2024
591 4 8.77019 13.96 70.3461
592 4 9.85167 9.6715 69.0024
593 4 1.17856 1.32667 68.4198
594 4 10.4785 12.0078 69.8766
595 4 1.90879 10.9006 67.3132
596 4 11.4118 3.99813 69.8426
597 4 6.87099 7.21792 70.4151
598 4 14.6352 0.431749 69.2965
599 4 14.1288 7.95099 71.596
600 4 9.32677 3.71632 70.7419
601 4 14.1119 12.8179 62.5946
602 4 2.08564 11.7513 53.1859
603 4 7.76178 5.08681 69.6229
604 4 6.59715 13.3464 70.5024
605 4 14.322 13.5148 68.9162
606 4 2.05732 0.27682 63.8662
607 4 8.95187 0.786406 69.2433
608 4 0.774431 7.01351 67.7872
609 4 12.7274 2.04144 68.5829
610 4 1.22731 7.73797 70.1562
611 4 14.3084 11.9053 64.8697
612 4 14.7197 9.50117 64.5385
613 4 2.06978 14.5917 66.0857
614 4 3.40332 6.54101 71.336
615 4 13.4566 3.89962 66.6927
616 4 5.87052 14.2728 64.8836
617 4 4.35151 11.6522 67.2034
618 4 11.7284 12.2249 65.9094
619 4 11.9046 13.2251 68.0456
620 4 6.38364 4.13453 67.9949
621 4 10.8502 9.5929 53.8718
622 4 3.14224 4.16182 63.143
623 4 10.8774 11.7118 60.0812
624 4 12.689 7.68516 65.3458
625 4 10.8021 7.84351 70.4301
626 5 9.95796 12.4385 13.7147
627 5 8.35585 4.21543 15.9426
628 5 10.4143 7.66301 15.2899
629 6 8.45876 10.9766 14.3949
630 6 8.47889 13.8938 14.0274
631 6 8.2437 12.7753 12.5509
632 6 9.45839 14.1734 12.4673
633 6 11.5226 13.0623 12.4689
634 6 12.0326 12.0059 13.8401
635 6 11.4942 13.7073 14.2107
636 6 10.216 12.174 9.96701
637 6 10.3386 12.3048 11.8502
638 6 9.12832 11.0475 11.1181
639 6 11.9144 5.55536 15.907
640 6 8.80905 4.86086 13.5943
641 6 12.1199 3.50131 10.9334
642 6 12.5086 4.94723 13.1491
643 6 9.58426 11.7447 15.5937
644 6 9.72866 8.78822 9.3188
645 6 11.4833 10.1659 14.6138
646 6 10.2619 9.51801 13.4663
647 6 8.73722 9.05309 15.671
648 6 10.2944 9.21696 16.539
649 6 8.78157 9.47389 21.4234
650 6 11.9029 11.0961 21.4677
651 6 7.9196 12.8606 19.3131
652 6 13.9178 10.8375 18.7552
653 6 6.66813 11.0447 9.85822
654 6 6.63852 6.09537 16.3795
655 6 12.2975 1.45886 9.6126
656 6 0.996876 2.09813 10.8752
657 6 1.36069 11.0932 11.2909
658 6 4.20077 8.79132 11.0466
659 6 9.2968 9.43982 19.4097
660 6 0.375162 10.1725 12.604
661 6 9.24126 3.04931 13.9814
662 6 0.959293 4.7657 8.97492
663 6 11.6397 13.401 10.1056
664 6 1.94471 11.3799 19.8757
665 6 3.33323 8.94879 14.8641
666 6 8.31441 8.24543 9.19918
667 6 11.5104 6.1028 10.2957
668 6 11.0487 0.191649 15.7257
669 6 6.08732 2.96546 10.4664
670 6 0.33554 0.775099 9.25514
671 6 4.71763 8.88917 15.7054
672 6 11.9854 2.82404 12.7113
673 6 3.29092 9.14674 8.9753
674 6 14.4281 2.19532 13.2061
675 6 6.34453 8.79765 14.6056
676 6 4.12447 0.574808 12.3285
677 6 4.54805 5.83036 20.0976
678 6 12.3432 14.8403 10.3619
679 6 12.1157 9.18819 9.15349
680 6 9.61131 14.4975 9.35506
681 6 4.922 13.907 17.0503
682 6 2.45691 9.31951 13.1432
683 6 13.5735 10.1987 12.8244
684 6 4.20027 10.3457 9.4049
685 6 5.27436 0.51989 15.7783
686 6 4.80086 5.43309 10.5695
687 6 2.30951 10.8311 10.0272
688 6 5.79472 1.20208 11.9098
689 6 5.34997 14.6884 8.8415
690 6 14.2689 4.75204 8.62518
691 6 11.4423 11.3597 26.3957
692 6 14.2965 1.45544 9.97979
693 6 4.30172 12.5005 17.424
694 6 5.01731 3.79902 23.1452
695 6 2.84442 2.11267 17.6052
696 6 -0.043373 14.4109 8.7302
697 6 1.13487 1.74446 16.5089
698 6 4.96015 13.3454 18.5676
699 6 1.36257 11.1465 13.3585
700 6 7.08499 1.83577 10.3064
701 6 0.22074 1.86609 14.1599
702 6 12.9599 6.7448 11.7046
703 6 5.37796 10.5648 22.9519
704 6 2.79695 5.2027 10.6919
705 6 8.60911 8.72043 23.9388
706 6 3.99524 4.78291 18.0399
707 6 14.162 10.8861 9.3212
708 6 6.24764 1.7664 8.91129
709 6 6.50878 9.84539 8.91664
710 6 2.29016 1.31664 11.8673
711 6 5.92397 15.1306 12.3047
712 6 0.60756 12.0819 15.3059
713 6 12.8794 13.0299 20.8374
714 6 5.72385 0.187175 10.1163
715 6 9.4113 3.77911 11.1137
716 6 9.51193 7.41301 8.98679
717 6 9.84248 0.684291 9.57023
718 6 0.294764 5.75586 13.7759
719 6 5.5046 13.3191 21.3013
720 6 14.7975 12.2391 8.78608
721 6 3.41557 8.18173 12.6682
722 6 5.46106 8.26023 12.195
723 6 4.10383 6.71384 11.0575
724 6 6.83731 5.00528 11.3819
725 6 1.37844 5.82429 17.0195
726 6 7.82634 13.4029 17.0871
727 6 3.50038 14.0766 9.82405
728 6 13.0569 9.92347 10.7111
729 6 0.440732 11.2735 9.68121
730 6 13.5814 15.0304 17.7686
731 6 6.46295 13.8536 9.93523
732 6 4.09526 6.338 9.45393
733 6 7.61992 13.057 8.9199
734 6 1.90619 3.13208 11.5315
735 6 6.62994 0.368803 22.8809
736 6 9.86431 1.26566 16.2017
737 6 6.58897 4.9141 9.71103
738 6 7.1835 1.75316 14.8225
739 6 13.7023 4.45112 19.5047
740 6 3.21293 8.22273 16.2864
741 6 15.1728 2.33737 8.98381
742 6 12.3953 7.35923 13.1205
743 6 7.98123 13.3857 10.5239
744 6 2.39342 13.1305 10.5629
745 6 7.65318 11.4182 17.2017
746 6 7.26464 0.259395 15.2168
747 6 8.94556 10.9511 20.5903
748 6 7.72168 6.85426 20.2656
749 6 0.616351 8.14698 19.741
750 6 12.5957 9.25438 18.5202
751 6 12.8458 5.67071 9.47306
752 6 8.8769 14.9352 16.2171
753 6 6.36765 2.71229 23.6637
754 6 2.9032 14.9713 11.6049
755 6 1.06493 3.34285 17.1851
756 6 6.4915 12.7897 17.5889
757 6 3.73962 7.71712 21.5856
758 6 2.19902 8.27771 20.6015
759 6 6.76292 13.8636 22.4464
760 6 3.20779 10.527 23.9812
761 6 14.153 5.85176 22.4818
762 6 13.0715 3.94956 23.2637
763 6 5.77575 6.45007 21.1239
764 6 12.0391 4.46451 24.5755
765 6 3.25771 10.4964 16.5916
766 6 7.01102 4.17792 23.6279
767 6 8.46133 0.30724 23.0833
768 6 5.31145 0.988397 28.2298
769 6 12.3547 0.36277 14.2067
770 6 14.0519 13.545 16.0371
771 6 12.8137 1.06508 12.1625
772 6 6.41847 6.78379 8.61612
773 6 8.48619 9.49376 17.9489
774 6 8.44818 5.84498 24.3678
775 6 0.60735 10.9748 18.8533
776 6 7.29281 9.65375 22.6212
777 6 6.22621 8.05251 16.0329
778 6 1.81704 -0.0569281 14.8623
779 6 12.2436 11.949 25.0527
780 6 8.82815 13.3693 20.4522
781 6 3.19889 6.53903 17.6843
782 6 1.37895 5.35169 11.3476
783 6 2.14024 11.7693 15.6529
784 6 3.90785 1.32064 19.4743
785 6 6.91909 10.018 16.4369
786 6 11.8365 10.9788 10.1695
787 6 8.68643 6.1414 18.816
788 6 13.061 13.866 9.52138
789 6 3.45969 15.0581 15.3195
790 6 4.12186 0.883239 16.9631
791 6 2.16427 7.66803 18.2153
792 6 12.0828 13.8444 24.3824
793 6 1.31119 1.78972 27.7319
794 6 0.784186 2.45455 12.6644
795 6 2.78398 15.1115 13.6004
796 6 1.57318 14.5576 9.13559
797 6 10.9389 3.84268 19.4176
798 6 0.503458 2.03905 18.5433
799 6 15.5091 11.6562 26.1112
800 6 1.94883 5.45109 30.044
801 6 2.37322 7.58541 22.5979
802 6 4.20791 14.7507 20.3334
803 6 2.35066 13.7935 14.7247
804 6 10.4256 10.216 20.8517
805 6 8.59397 7.98905 18.7352
806 6 2.22942 9.17546 25.4123
807 6 7.30956 7.67959 12.5215
808 6 7.35416 12.8215 20.9201
809 6 11.9431 0.370907 18.9824
810 6 1.96217 6.0789 23.6157
811 6 4.69647 5.25636 21.5726
812 6 14.0429 13.5406 23.9838
813 6 12.183 7.57332 9.13988
814 6 7.06459 6.65409 17.9533
815 6 9.55089 4.07504 9.29269
816 6 0.12317 6.82382 12.4692
817 6 1.06647 1.53089 20.7567
818 6 8.13854 6.03475 26.3667
819 6 13.0442 5.96054 17.8187
820 6 14.1724 6.53959 18.8551
821 6 8.71997 4.38955 22.4955
822 6 3.78019 13.1325 20.4882
823 6 13.4353 1.19961 25.3583
824 6 15.2611 1.20446 28.2057
825 6 0.984249 2.17721 22.9513
826 6 14.3778 11.7462 17.5172
827 6 2.99987 1.16566 20.7207
828 6 13.7999 11.5876 15.5215
829 6 4.69629 4.29648 26.6727
830 6 12.1889 1.85326 26.8701
831 6 1.31535 0.304439 21.6567
832 6 0.0742145 13.8445 21.1639
833 6 12.9884 14.8909 15.5608
834 6 3.05214 4.38248 23.5375
835 6 12.4948 2.46129 24.844
836 6 11.6721 0.699229 25.0521
837 6 11.4848 9.43933 23.3062
838 6 10.4642 14.8969 25.6411
839 6 14.2631 0.632504 18.9555
840 6 14.1959 12.6725 19.4839
841 6 10.441 0.476316 17.396
842 6 5.82215 3.82037 25.6158
843 6 9.69363 -0.01325 21.95
844 6 10.5785 3.40621 22.9
845 6 3.70735 10.8412 26.1876
846 6 4.35634 2.63286 17.5406
847 6 13.5947 11.045 28.2975
848 6 10.4458 3.00579 21.3958
849 6 12.3448 12.9509 23.0681
850 6 12.2735 3.30259 19.9455
851 6 5.11126 5.95732 17.8291
852 6 7.83827 5.79099 22.194
853 6 10.4605 15.2356 19.9757
854 6 4.13895 3.11778 21.9248
855 6 0.101428 1.95865 24.2172
856 6 14.6484 2.59457 19.525
857 6 -0.09997 6.95182 22.8643
858 6 13.4762 6.046 29.5384
859 6 6.62046 12.9424 26.0451
860 6 14.3935 7.51898 20.6948
861 6 9.38698 1.42962 22.6224
862 6 8.37209 3.04201 29.5173
863 6 10.9141 1.56045 19.249
864 6 1.87492 7.84854 13.2323
865 6 14.0365 8.45813 19.443
866 6 12.6101 9.49604 20.0586
867 6 14.7423 15.0693 15.8762
868 6 1.51011 7.73386 24.9087
869 6 14.0147 3.94606 21.4705
870 6 13.6066 8.71252 12.265
871 6 15.147 5.4291 17.3329
872 6 1.8604 12.8936 21.6219
873 6 11.2671 13.4214 21.0372
874 6 13.7254 14.1873 19.573
875 6 6.21973 0.802868 13.9885
876 6 0.118277 5.07926 15.3879
877 6 2.08634 11.13 25.2221
878 6 5.26019 11.314 26.5142
879 6 14.4236 7.81455 28.2025
880 6 12.0607 6.46716 25.6013
881 6 13.9815 7.81793 25.3813
882 6 1.80396 9.39406 19.4014
883 6 7.74914 1.96948 30.6374
884 6 4.72359 9.29513 29.3785
885 6 14.2545 5.27836 14.4308
886 6 2.48149 11.298 17.8231
887 6 5.88865 2.66684 27.4104
888 6 6.33018 11.6697 22.6832
889 6 15.1283 15.2905 24.6522
890 6 3.00422 6.11452 33.5156
891 6 10.5189 5.81616 25.4442
892 6 10.303 0.158931 24.0148
893 6 14.1355 5.96082 35.2384
894 6 6.90395 14.5594 25.4167
895 6 15.0559 2.96041 33.6381
896 6 2.86723 4.17477 27.2114
897 6 3.30974 9.70739 22.4516
898 6 13.7306 7.16408 23.4183
899 6 7.54115 6.76124 27.6286
900 6 0.226333 13.9086 22.905
901 6 0.367259 0.977079 26.6559
902 6 3.74395 12.6135 30.2931
903 6 0.960791 13.4256 28.7125
904 6 1.12059 12.8789 26.6342
905 6 14.3723 2.85413 30.1441
906 6 11.736 13.8654 34.3235
907 6 4.1629 7.20956 34.0071
908 6 1.38742 14.7586 27.8722
909 6 8.6592 11.0938 34.0502
910 6 10.6719 13.8975 31.4578
911 6 2.8842 4.78774 25.7116
912 6 4.5366 1.5106 29.9191
913 6 4.76643 14.169 28.4775
914 6 9.89962 12.9522 27.1571
915 6 9.11229 7.17166 25.0516
916 6 5.28888 1.39556 21.6883
917 6 0.153048 11.4716 35.4434
918 6 12.5781 8.27384 24.7479
919 6 6.64725 12.1088 47.3456
920 6 5.35941 14.0308 33.5415
921 6 15.3016 3.48606 13.8971
922 6 3.07206 13.5404 28.2064
923 6 7.05377 9.23083 12.3144
924 6 4.0816 12.4246 28.0592
925 6 11.9814 6.0826 30.7815
926 6 10.8852 1.09829 28.3814
927 6 9.84683 10.9042 32.8751
928 6 13.8147 0.976418 29.8535
929 6 0.0311791 14.4416 33.6158
930 6 5.78197 8.05506 33.5389
931 6 11.8631 10.3986 25.0679
932 6 10.132 10.9255 30.4891
933 6 12.9457 5.57463 34.0179
934 6 2.80141 12.2213 31.5361
935 6 11.5415 5.09536 27.1237
936 6 4.62116 9.65704 27.8227
937 6 7.68034 8.15564 21.942
938 6 8.56058 9.54948 26.0083
939 6 1.6922 4.01394 24.0373
940 6 -0.170945 3.3604 23.1956
941 6 9.97609 12.7234 33.0967
942 6 0.0978806 9.96285 33.7747
943 6 9.66751 14.876 27.4429
944 6 6.14219 8.65486 28.5427
945 6 0.215622 13.1784 24.5356
946 6 2.17901 7.95219 26.3872
947 6 6.38412 11.6178 24.8052
948 6 3.70259 7.50197 27.7076
949 6 7.7752 8.41343 29.7507
950 6 7.94057 0.85001 32.5738
951 6 4.16162 13.6589 32.3097
952 6 12.5737 13.1017 36.0786
953 6 14.6331 13.8656 30.4011
954 6 7.49679 10.6828 26.5998
955 6 13.8108 4.35728 30.2802
956 6 1.74845 8.93536 31.8798
957 6 11.8175 11.3546 29.4917
958 6 14.3261 8.43108 29.8636
959 6 9.41949 3.905 34.4854
960 6 11.3081 4.21182 33.8794
961 6 1.44377 3.76981 34.3678
962 6 5.88558 1.50513 31.8835
963 6 8.6325 1.41045 29.3623
964 6 3.3121 6.05579 27.0448
965 6 -0.135186 9.86808 31.695
966 6 10.5977 0.309632 35.1802
967 6 7.08406 10.7253 35.2098
968 6 7.84107 2.53822 32.7363
969 6 13.36 1.97505 28.6654
970 6 7.51951 14.1082 34.3352
971 6 13.6057 10.2931 29.8295
972 6 11.6278 7.53868 31.9861
973 6 2.91081 7.57417 32.9389
974 6 11.5447 5.17751 32.6276
975 6 8.88712 5.43492 30.303