BEGIN_CFG
Size
144
Supercell
15.3369998932 0.0000000000 0.0000000000
0.0000000000 15.3369998932 0.0000000000
0.0000000000 0.0000000000 30.2000007629
AtomData:  id type       cartes_x      cartes_y      cartes_z
     1    0       2.016355       1.782466       2.424154
     2    0       0.738323       0.504281       4.181492
     3    0       2.021524       1.783509       5.956558
     4    0       0.739306       0.507284       7.687402
     5    0       2.016355       4.338531       2.424154
     6    0       0.738323       3.060498       4.181492
     7    0       2.023502       4.340141       5.954383
     8    0       0.742879       3.058913       7.686904
     9    0       2.016355       6.894748       2.424154
    10    0       0.738323       5.616716       4.181492
    11    0       2.017076       6.894963       5.958581
    12    0       0.739307       5.614580       7.690959
    13    0       4.572573       1.782466       2.424154
    14    0       3.294541       0.504281       4.181492
    15    0       4.576515       1.781914       5.935508
    16    0       3.289788       0.509264       7.692395
    17    0       4.572573       4.338531       2.424154
    18    0       3.294541       3.060498       4.181492
    19    0       4.594106       4.319283       5.976792
    20    0       3.294170       3.056216       7.693327
    21    0       4.572573       6.894748       2.424154
    22    0       3.294541       5.616716       4.181492
    23    0       4.574720       6.894227       5.955108
    24    0       3.296819       5.615065       7.690490
    25    0       7.128791       1.782466       2.424154
    26    0       5.850605       0.504281       4.181492
    27    0       7.139036       1.784092       5.967852
    28    0       5.843501       0.509847       7.709932
    29    0       7.128791       4.338531       2.424154
    30    0       5.850605       3.060498       4.181492
    31    0       7.127288       4.300372       6.005995
    32    0       5.847345       3.041450       7.717680
    33    0       7.128791       6.894748       2.424154
    34    0       5.850605       5.616716       4.181492
    35    0       7.128193       6.893843       5.951967
    36    0       5.852673       5.618808       7.700785
    37    0       9.684855       1.782466       2.424154
    38    0       8.406823       0.504281       4.181492
    39    0       9.678675       1.779659       5.928049
    40    0       8.408322       0.506170       7.703429
    41    0       9.684855       4.338531       2.424154
    42    0       8.406823       3.060498       4.181492
    43    0       9.677202       4.342994       5.954625
    44    0       8.426170       3.052959       7.706830
    45    0       9.684855       6.894748       2.424154
    46    0       8.406823       5.616716       4.181492
    47    0       9.684380       6.900270       5.949098
    48    0       8.411137       5.624279       7.694489
    49    0      12.241073       1.782466       2.424154
    50    0      10.963041       0.504281       4.181492
    51    0      12.239938       1.780902       5.953628
    52    0      10.959134       0.523802       7.702812
    53    0      12.241073       4.338531       2.424154
    54    0      10.963041       3.060498       4.181492
    55    0      12.237776       4.340310       5.958188
    56    0      10.968299       3.068445       7.683707
    57    0      12.241073       6.894748       2.424154
    58    0      10.963041       5.616716       4.181492
    59    0      12.243420       6.903107       5.951212
    60    0      10.962428       5.626321       7.687085
    61    0      14.797291       1.782466       2.424154
    62    0      13.519105       0.504281       4.181492
    63    0      14.797091       1.783110       5.945535
    64    0      13.525063       0.512351       7.695307
    65    0      14.797291       4.338531       2.424154
    66    0      13.519105       3.060498       4.181492
    67    0      14.801785       4.343147       5.951605
    68    0      13.524603       3.062206       7.686238
    69    0      14.797291       6.894748       2.424154
    70    0      13.519105       5.616716       4.181492
    71    0      14.794638       6.895822       5.958641
    72    0      13.517387       5.616955       7.689710
    73    0       2.016355       9.450966       2.424154
    74    0       0.738323       8.172781       4.181492
    75    0       2.016095       9.452101       5.955229
    76    0       0.737380       8.173073       7.692135
    77    0       2.016355      12.007030       2.424154
    78    0       0.738323      10.728998       4.181492
    79    0       2.015236      12.008257       5.957433
    80    0       0.737458      10.730003       7.691822
    81    0       2.016355      14.563248       2.424154
    82    0       0.738323      13.285216       4.181492
    83    0       2.018441      14.563356       5.954444
    84    0       0.737555      13.288198       7.690772
    85    0       4.572573       9.450966       2.424154
    86    0       3.294541       8.172781       4.181492
    87    0       4.573969       9.450782       5.957705
    88    0       3.295790       8.173686       7.691322
    89    0       4.572573      12.007030       2.424154
    90    0       3.294541      10.728998       4.181492
    91    0       4.572236      12.005681       5.951997
    92    0       3.296333      10.730789       7.690816
    93    0       4.572573      14.563248       2.424154
    94    0       3.294541      13.285216       4.181492
    95    0       4.587036      14.579076       5.972292
    96    0       3.295543      13.288188       7.689300
    97    0       7.128791       9.450966       2.424154
    98    0       5.850605       8.172781       4.181492
    99    0       7.131644       9.450383       5.953538
   100    0       5.853617       8.172021       7.690038
   101    0       7.128791      12.007030       2.424154
   102    0       5.850605      10.728998       4.181492
   103    0       7.130846      12.005313       5.949551
   104    0       5.854043      10.727685       7.688869
   105    0       7.128791      14.563248       2.424154
   106    0       5.850605      13.285216       4.181492
   107    0       7.113623      14.586821       5.978513
   108    0       5.850644      13.278294       7.695508
   109    0       9.684855       9.450966       2.424154
   110    0       8.406823       8.172781       4.181492
   111    0       9.685423       9.454218       5.955229
   112    0       8.407310       8.176289       7.690056
   113    0       9.684855      12.007030       2.424154
   114    0       8.406823      10.728998       4.181492
   115    0       9.685469      12.008810       5.949068
   116    0       8.407861      10.727315       7.689954
   117    0       9.684855      14.563248       2.424154
   118    0       8.406823      13.285216       4.181492
   119    0       9.688659      14.579291       5.973892
   120    0       8.404168      13.281584       7.688939
   121    0      12.241073       9.450966       2.424154
   122    0      10.963041       8.172781       4.181492
   123    0      12.239739       9.453558       5.955350
   124    0      10.961017       8.181352       7.691327
   125    0      12.241073      12.007030       2.424154
   126    0      10.963041      10.728998       4.181492
   127    0      12.240291      12.009699       5.954142
   128    0      10.961429      10.734128       7.691234
   129    0      12.241073      14.563248       2.424154
   130    0      10.963041      13.285216       4.181492
   131    0      12.224494      14.583892       5.980959
   132    0      10.957556      13.286327       7.696978
   133    0      14.797291       9.450966       2.424154
   134    0      13.519105       8.172781       4.181492
   135    0      14.794177       9.451503       5.958188
   136    0      13.515899       8.174532       7.693769
   137    0      14.797291      12.007030       2.424154
   138    0      13.519105      10.728998       4.181492
   139    0      14.793625      12.008641       5.958007
   140    0      13.516027      10.731010       7.692643
   141    0      14.797291      14.563248       2.424154
   142    0      13.519105      13.285216       4.181492
   143    0      14.794331      14.562037       5.954655
   144    0      13.515774      13.288662       7.692318
END_CFG
