BEGIN_CFG
 Size
    144
 Supercell
        15.337000      0.000000      0.000000
         0.000000     15.337000      0.000000
         0.000000      0.000000     30.200001
 AtomData:  id type       cartes_x      cartes_y      cartes_z           fx          fy          fz
             1    0       2.016355      1.782466      2.424154     0.000781   -0.000160    0.107746
             2    0       0.738323      0.504281      4.181492     0.007460   -0.007880   -0.005873
             3    0       2.021524      1.783509      5.956558    -0.018488   -0.003165   -0.137524
             4    0       0.739306      0.507284      7.687402    -0.007834   -0.004576   -0.001806
             5    0       2.016355      4.338531      2.424154     0.004221    0.001945    0.113326
             6    0       0.738323      3.060498      4.181492     0.019663    0.009024   -0.010977
             7    0       2.023502      4.340141      5.954383     0.007669   -0.008225   -0.099261
             8    0       0.742879      3.058913      7.686904    -0.017500    0.004698   -0.002820
             9    0       2.016355      6.894748      2.424154     0.002193   -0.000666    0.111374
            10    0       0.738323      5.616716      4.181492     0.014648    0.011884   -0.002235
            11    0       2.017076      6.894963      5.958581    -0.011539    0.008175   -0.124981
            12    0       0.739307      5.614580      7.690959     0.000314    0.001052    0.000584
            13    0       4.572573      1.782466      2.424154     0.000713    0.000183    0.118319
            14    0       3.294541      0.504281      4.181492     0.003086   -0.024094   -0.011231
            15    0       4.576515      1.781914      5.935508     0.025451   -0.000454    0.088475
            16    0       3.289788      0.509264      7.692395     0.017361    0.002925   -0.001005
            17    0       4.572573      4.338531      2.424154     0.004031    0.003515    0.106170
            18    0       3.294541      3.060498      4.181492     0.017862    0.029841   -0.005536
            19    0       4.594106      4.319283      5.976792    -0.110619    0.120795   -0.235395
            20    0       3.294170      3.056216      7.693327     0.008962   -0.005027   -0.000452
            21    0       4.572573      6.894748      2.424154     0.000923   -0.005363    0.117638
            22    0       3.294541      5.616716      4.181492     0.043314   -0.026094    0.043672
            23    0       4.574720      6.894227      5.955108    -0.013018   -0.040046   -0.093746
            24    0       3.296819      5.615065      7.690490     0.002578    0.001060    0.000876
            25    0       7.128791      1.782466      2.424154    -0.000046    0.000776    0.099959
            26    0       5.850605      0.504281      4.181492     0.034362   -0.001620   -0.020603
            27    0       7.139036      1.784092      5.967852    -0.087673   -0.036543   -0.140374
            28    0       5.843501      0.509847      7.709932     0.001500   -0.001710    0.004290
            29    0       7.128791      4.338531      2.424154    -0.001312    0.002710    0.092181
            30    0       5.850605      3.060498      4.181492     0.052821    0.022793    0.003437
            31    0       7.127288      4.300372      6.005995     0.030748    0.244746   -0.432589
            32    0       5.847345      3.041450      7.717680     0.000874    0.005362    0.007746
            33    0       7.128791      6.894748      2.424154    -0.001397   -0.007882    0.120284
            34    0       5.850605      5.616716      4.181492     0.035454   -0.073323    0.084105
            35    0       7.128193      6.893843      5.951967     0.005384   -0.080984   -0.069186
            36    0       5.852673      5.618808      7.700785    -0.001709    0.002860   -0.000210
            37    0       9.684855      1.782466      2.424154    -0.000930    0.000350    0.120615
            38    0       8.406823      0.504281      4.181492    -0.037561   -0.042697   -0.006194
            39    0       9.678675      1.779659      5.928049     0.051504    0.054230    0.141185
            40    0       8.408322      0.506170      7.703429     0.006266    0.013612    0.007389
            41    0       9.684855      4.338531      2.424154    -0.003286    0.003372    0.112664
            42    0       8.406823      3.060498      4.181492    -0.047674    0.037824   -0.008889
            43    0       9.677202      4.342994      5.954625     0.026056   -0.023675   -0.090935
            44    0       8.426170      3.052959      7.706830     0.006518   -0.012558    0.009909
            45    0       9.684855      6.894748      2.424154    -0.001452   -0.002166    0.113461
            46    0       8.406823      5.616716      4.181492    -0.061233   -0.050756    0.054214
            47    0       9.684380      6.900270      5.949098     0.007234   -0.008824   -0.061001
            48    0       8.411137      5.624279      7.694489     0.000034   -0.008977    0.000563
            49    0      12.241073      1.782466      2.424154     0.001292    0.000477    0.107614
            50    0      10.963041      0.504281      4.181492     0.010013   -0.027613   -0.031506
            51    0      12.239938      1.780902      5.953628     0.001980    0.041241   -0.090272
            52    0      10.959134      0.523802      7.702812    -0.010538    0.005740    0.005486
            53    0      12.241073      4.338531      2.424154    -0.000224    0.001478    0.107679
            54    0      10.963041      3.060498      4.181492     0.009218    0.029752   -0.017259
            55    0      12.237776      4.340310      5.958188     0.028060    0.016934   -0.147280
            56    0      10.968299      3.068445      7.683707    -0.017884   -0.012709    0.001165
            57    0      12.241073      6.894748      2.424154     0.000009   -0.000024    0.109584
            58    0      10.963041      5.616716      4.181492    -0.003266    0.000318   -0.002073
            59    0      12.243420      6.903107      5.951212    -0.018708   -0.035780   -0.071113
            60    0      10.962428      5.626321      7.687085    -0.000219   -0.006427   -0.000809
            61    0      14.797291      1.782466      2.424154    -0.000220   -0.000107    0.114854
            62    0      13.519105      0.504281      4.181492    -0.021544   -0.025955    0.002483
            63    0      14.797091      1.783110      5.945535     0.009638   -0.003142   -0.040131
            64    0      13.525063      0.512351      7.695307    -0.004139   -0.001721   -0.000670
            65    0      14.797291      4.338531      2.424154     0.000126    0.001428    0.111202
            66    0      13.519105      3.060498      4.181492    -0.008431    0.015679   -0.007536
            67    0      14.801785      4.343147      5.951605    -0.018046   -0.024951   -0.081695
            68    0      13.524603      3.062206      7.686238    -0.001592    0.001136   -0.001755
            69    0      14.797291      6.894748      2.424154     0.001025    0.000827    0.107374
            70    0      13.519105      5.616716      4.181492    -0.003355    0.002268   -0.004851
            71    0      14.794638      6.895822      5.958641     0.021456    0.008133   -0.122826
            72    0      13.517387      5.616955      7.689710     0.002155    0.000753    0.000542
            73    0       2.016355      9.450966      2.424154     0.000030   -0.000468    0.112094
            74    0       0.738323      8.172781      4.181492    -0.004734    0.004698    0.008118
            75    0       2.016095      9.452101      5.955229    -0.004003   -0.005099   -0.095241
            76    0       0.737380      8.173073      7.692135     0.001469    0.002620    0.000295
            77    0       2.016355     12.007030      2.424154     0.000523    0.001270    0.111056
            78    0       0.738323     10.728998      4.181492    -0.007654   -0.002858    0.005921
            79    0       2.015236     12.008257      5.957433    -0.000471   -0.007804   -0.117368
            80    0       0.737458     10.730003      7.691822     0.000814   -0.002593    0.000361
            81    0       2.016355     14.563248      2.424154     0.002145   -0.001097    0.112649
            82    0       0.738323     13.285216      4.181492    -0.003740   -0.000520    0.003424
            83    0       2.018441     14.563356      5.954444     0.005552    0.004938   -0.102492
            84    0       0.737555     13.288198      7.690772    -0.000457   -0.001239    0.000014
            85    0       4.572573      9.450966      2.424154    -0.000567   -0.001022    0.108215
            86    0       3.294541      8.172781      4.181492    -0.003191   -0.001269    0.004834
            87    0       4.573969      9.450782      5.957705    -0.007868   -0.003517   -0.123602
            88    0       3.295790      8.173686      7.691322    -0.001106   -0.002706   -0.000615
            89    0       4.572573     12.007030      2.424154    -0.000307    0.003924    0.115661
            90    0       3.294541     10.728998      4.181492    -0.004897   -0.000903   -0.001686
            91    0       4.572236     12.005681      5.951997     0.003074    0.040018   -0.077853
            92    0       3.296333     10.730789      7.690816    -0.001739    0.000977   -0.000548
            93    0       4.572573     14.563248      2.424154     0.000571   -0.002615    0.102482
            94    0       3.294541     13.285216      4.181492     0.023385    0.023271    0.030129
            95    0       4.587036     14.579076      5.972292    -0.119224   -0.109607   -0.219846
            96    0       3.295543     13.288188      7.689300     0.000147   -0.002492    0.001557
            97    0       7.128791      9.450966      2.424154    -0.000838   -0.000587    0.108051
            98    0       5.850605      8.172781      4.181492    -0.001492   -0.009528   -0.003856
            99    0       7.131644      9.450383      5.953538    -0.016774   -0.008631   -0.100770
           100    0       5.853617      8.172021      7.690038    -0.002861   -0.000537    0.000593
           101    0       7.128791     12.007030      2.424154     0.000229    0.006137    0.117883
           102    0       5.850605     10.728998      4.181492    -0.003789   -0.004239   -0.011747
           103    0       7.130846     12.005313      5.949551    -0.019267    0.053317   -0.064969
           104    0       5.854043     10.727685      7.688869    -0.002988    0.001699    0.000797
           105    0       7.128791     14.563248      2.424154     0.001360   -0.001966    0.103179
           106    0       5.850605     13.285216      4.181492     0.011984    0.039702    0.039467
           107    0       7.113623     14.586821      5.978513     0.133253   -0.153145   -0.253359
           108    0       5.850644     13.278294      7.695508    -0.000394    0.001235   -0.000827
           109    0       9.684855      9.450966      2.424154     0.000453    0.000511    0.105764
           110    0       8.406823      8.172781      4.181492    -0.004112    0.000533   -0.020270
           111    0       9.685423      9.454218      5.955229     0.004667   -0.001943   -0.114692
           112    0       8.407310      8.176289      7.690056    -0.000525   -0.014120   -0.002330
           113    0       9.684855     12.007030      2.424154    -0.000394    0.006055    0.117084
           114    0       8.406823     10.728998      4.181492     0.002639    0.002469   -0.025184
           115    0       9.685469     12.008810      5.949068     0.004590    0.027092   -0.056504
           116    0       8.407861     10.727315      7.689954    -0.001172    0.019063   -0.003252
           117    0       9.684855     14.563248      2.424154    -0.001942   -0.003517    0.104400
           118    0       8.406823     13.285216      4.181492    -0.013452    0.068746    0.065852
           119    0       9.688659     14.579291      5.973892    -0.083202   -0.098090   -0.223719
           120    0       8.404168     13.281584      7.688939    -0.001835    0.003593   -0.001327
           121    0      12.241073      9.450966      2.424154     0.000385    0.001287    0.106997
           122    0      10.963041      8.172781      4.181492     0.004448    0.021664   -0.027396
           123    0      12.239739      9.453558      5.955350     0.007253    0.010116   -0.102755
           124    0      10.961017      8.181352      7.691327     0.001474   -0.019620   -0.002614
           125    0      12.241073     12.007030      2.424154     0.000019    0.005321    0.114832
           126    0      10.963041     10.728998      4.181492     0.008662    0.007649   -0.018981
           127    0      12.240291     12.009699      5.954142    -0.001394    0.037844   -0.086064
           128    0      10.961429     10.734128      7.691234     0.001352    0.000368   -0.001313
           129    0      12.241073     14.563248      2.424154    -0.000442   -0.001837    0.099771
           130    0      10.963041     13.285216      4.181492     0.000450    0.050066    0.040663
           131    0      12.224494     14.583892      5.980959     0.105652   -0.131827   -0.274091
           132    0      10.957556     13.286327      7.696978     0.000846    0.001701    0.000622
           133    0      14.797291      9.450966      2.424154     0.000461    0.000545    0.109229
           134    0      13.519105      8.172781      4.181492     0.010080    0.013883   -0.015460
           135    0      14.794177      9.451503      5.958188     0.016249   -0.002085   -0.117601
           136    0      13.515899      8.174532      7.693769     0.002701   -0.000239    0.000663
           137    0      14.797291     12.007030      2.424154    -0.001286    0.001633    0.111003
           138    0      13.519105     10.728998      4.181492     0.002215    0.007564   -0.002896
           139    0      14.793625     12.008641      5.958007     0.019140   -0.015641   -0.117292
           140    0      13.516027     10.731010      7.692643     0.002729    0.000959    0.000258
           141    0      14.797291     14.563248      2.424154    -0.003100   -0.001171    0.113533
           142    0      13.519105     13.285216      4.181492    -0.039676    0.036144    0.039763
           143    0      14.794331     14.562037      5.954655    -0.016950    0.014576   -0.094821
           144    0      13.515774     13.288662      7.692318     0.003322   -0.002654    0.000560
 Energy
       -539.282329537033
 PlusStress:  xx          yy          zz          yz          xz          xy
      -115.71819  -115.67136   -14.31068    -0.33507    -0.11133     0.00115
END_CFG

