BEGIN_CFG
Size
183
Supercell
15.3369998932 0.0000000000 0.0000000000
0.0000000000 15.3369998932 0.0000000000
0.0000000000 0.0000000000 30.2000007629
AtomData:  id type       cartes_x      cartes_y      cartes_z
     1    0       2.016355       1.782466       2.424154
     2    0       0.738323       0.504281       4.181492
     3    0       2.021524       1.783509       5.956558
     4    0       0.736041       0.508113       7.693488
     5    0       2.016355       4.338531       2.424154
     6    0       0.738323       3.060498       4.181492
     7    0       2.023502       4.340141       5.954383
     8    0       0.742491       3.057661       7.693791
     9    0       2.016355       6.894748       2.424154
    10    0       0.738323       5.616716       4.181492
    11    0       2.017076       6.894963       5.958581
    12    0       0.750385       5.610729       7.698472
    13    0       4.572573       1.782466       2.424154
    14    0       3.294541       0.504281       4.181492
    15    0       4.576515       1.781914       5.935508
    16    0       3.292958       0.508320       7.691792
    17    0       4.572573       4.338531       2.424154
    18    0       3.294541       3.060498       4.181492
    19    0       4.594106       4.319283       5.976792
    20    0       3.296655       3.058282       7.691755
    21    0       4.572573       6.894748       2.424154
    22    0       3.294541       5.616716       4.181492
    23    0       4.574720       6.894227       5.955108
    24    0       3.292638       5.616769       7.691925
    25    0       7.128791       1.782466       2.424154
    26    0       5.850605       0.504281       4.181492
    27    0       7.139036       1.784092       5.967852
    28    0       5.840610       0.514162       7.701808
    29    0       7.128791       4.338531       2.424154
    30    0       5.850605       3.060498       4.181492
    31    0       7.127288       4.300372       6.005995
    32    0       5.845998       3.050612       7.706096
    33    0       7.128791       6.894748       2.424154
    34    0       5.850605       5.616716       4.181492
    35    0       7.128193       6.893843       5.951967
    36    0       5.842852       5.621243       7.697000
    37    0       9.684855       1.782466       2.424154
    38    0       8.406823       0.504281       4.181492
    39    0       9.678675       1.779659       5.928049
    40    0       8.373225       0.466342       7.762078
    41    0       9.684855       4.338531       2.424154
    42    0       8.406823       3.060498       4.181492
    43    0       9.677202       4.342994       5.954625
    44    0       8.399947       3.146959       7.807131
    45    0       9.684855       6.894748       2.424154
    46    0       8.406823       5.616716       4.181492
    47    0       9.684380       6.900270       5.949098
    48    0       8.395739       5.634914       7.712666
    49    0      12.241073       1.782466       2.424154
    50    0      10.963041       0.504281       4.181492
    51    0      12.239938       1.780902       5.953628
    52    0      11.035129       0.434589       7.800136
    53    0      12.241073       4.338531       2.424154
    54    0      10.963041       3.060498       4.181492
    55    0      12.237776       4.340310       5.958188
    56    0      10.999425       3.089800       7.714740
    57    0      12.241073       6.894748       2.424154
    58    0      10.963041       5.616716       4.181492
    59    0      12.243420       6.903107       5.951212
    60    0      10.907444       5.606283       7.615803
    61    0      14.797291       1.782466       2.424154
    62    0      13.519105       0.504281       4.181492
    63    0      14.797091       1.783110       5.945535
    64    0      13.539716       0.515212       7.697422
    65    0      14.797291       4.338531       2.424154
    66    0      13.519105       3.060498       4.181492
    67    0      14.801785       4.343147       5.951605
    68    0      13.557254       3.048043       7.639537
    69    0      14.797291       6.894748       2.424154
    70    0      13.519105       5.616716       4.181492
    71    0      14.794638       6.895822       5.958641
    72    0      13.550773       5.638966       7.623697
    73    0       2.016355       9.450966       2.424154
    74    0       0.738323       8.172781       4.181492
    75    0       2.016095       9.452101       5.955229
    76    0       0.730130       8.163703       7.706981
    77    0       2.016355      12.007030       2.424154
    78    0       0.738323      10.728998       4.181492
    79    0       2.015236      12.008257       5.957433
    80    0       0.724955      10.719584       7.700353
    81    0       2.016355      14.563248       2.424154
    82    0       0.738323      13.285216       4.181492
    83    0       2.018441      14.563356       5.954444
    84    0       0.729803      13.284423       7.695617
    85    0       4.572573       9.450966       2.424154
    86    0       3.294541       8.172781       4.181492
    87    0       4.573969       9.450782       5.957705
    88    0       3.294174       8.171662       7.691612
    89    0       4.572573      12.007030       2.424154
    90    0       3.294541      10.728998       4.181492
    91    0       4.572236      12.005681       5.951997
    92    0       3.296390      10.731617       7.689656
    93    0       4.572573      14.563248       2.424154
    94    0       3.294541      13.285216       4.181492
    95    0       4.587036      14.579076       5.972292
    96    0       3.290896      13.286832       7.689906
    97    0       7.128791       9.450966       2.424154
    98    0       5.850605       8.172781       4.181492
    99    0       7.131644       9.450383       5.953538
   100    0       5.862088       8.173341       7.699520
   101    0       7.128791      12.007030       2.424154
   102    0       5.850605      10.728998       4.181492
   103    0       7.130846      12.005313       5.949551
   104    0       5.853553      10.725532       7.700617
   105    0       7.128791      14.563248       2.424154
   106    0       5.850605      13.285216       4.181492
   107    0       7.113623      14.586821       5.978513
   108    0       5.833699      13.269436       7.695930
   109    0       9.684855       9.450966       2.424154
   110    0       8.406823       8.172781       4.181492
   111    0       9.685423       9.454218       5.955229
   112    0       8.404181       8.181338       7.705653
   113    0       9.684855      12.007030       2.424154
   114    0       8.406823      10.728998       4.181492
   115    0       9.685469      12.008810       5.949068
   116    0       8.388497      10.732829       7.678737
   117    0       9.684855      14.563248       2.424154
   118    0       8.406823      13.285216       4.181492
   119    0       9.688659      14.579291       5.973892
   120    0       8.393474      13.261669       7.694135
   121    0      12.241073       9.450966       2.424154
   122    0      10.963041       8.172781       4.181492
   123    0      12.239739       9.453558       5.955350
   124    0      10.967965       8.160666       7.697205
   125    0      12.241073      12.007030       2.424154
   126    0      10.963041      10.728998       4.181492
   127    0      12.240291      12.009699       5.954142
   128    0      10.965718      10.733644       7.633986
   129    0      12.241073      14.563248       2.424154
   130    0      10.963041      13.285216       4.181492
   131    0      12.224494      14.583892       5.980959
   132    0      10.945879      13.262825       7.696310
   133    0      14.797291       9.450966       2.424154
   134    0      13.519105       8.172781       4.181492
   135    0      14.794177       9.451503       5.958188
   136    0      13.524035       8.204714       7.732094
   137    0      14.797291      12.007030       2.424154
   138    0      13.519105      10.728998       4.181492
   139    0      14.793625      12.008641       5.958007
   140    0      13.509725      10.754544       7.705920
   141    0      14.797291      14.563248       2.424154
   142    0      13.519105      13.285216       4.181492
   143    0      14.794331      14.562037       5.954655
   144    0      13.514619      13.306083       7.700213
   145    1      12.426510       3.554408      10.764283
   146    1       9.689062      10.961854      10.958889
   147    1      13.087340       6.969903      11.102902
   148    1       9.452398      13.413544      11.207121
   149    1      10.517485      12.043164      13.003877
   150    1      11.686316      12.463801      10.875903
   151    1      12.398743       6.030235      10.089545
   152    1      11.727654       4.791137      10.641512
   153    1      10.298480       4.739127      10.835650
   154    1      10.297516       2.509146      10.476313
   155    1      11.658817       2.390692      10.891688
   156    1      10.640386       9.792364      10.518437
   157    1      11.102269       8.602835      11.427802
   158    2      13.606745       5.531872       8.785835
   159    3      14.067509       6.668962      11.760313
   160    4      10.333366      12.210204      11.518944
   161    4       9.579494       3.555053      10.951757
   162    4      12.458208       8.193959      11.145182
   163    5       9.151028      11.296216      10.051305
   164    5       8.422332      13.197192      11.498928
   165    5       9.519045      13.621423      10.125386
   166    5       9.837531      14.276713      11.754895
   167    5      10.968869      11.065531      13.200242
   168    5       9.543590      12.114731      13.491337
   169    5      11.172628      12.839002      13.361663
   170    5      12.026653      13.468279      11.134203
   171    5      11.543063      12.389280       9.783419
   172    5      12.399094      11.710502      11.228242
   173    5      11.678170       6.640931       9.503641
   174    5       9.733316       5.676983      10.896745
   175    5      12.022197       1.467312      11.325510
   176    5      13.518419       3.472945      10.730342
   177    5       8.962545      10.594004      11.684342
   178    5      13.054991       8.926269      10.904136
   179    5      11.534576      10.207540      10.009368
   180    5      10.052315       9.300718       9.706561
   181    5      10.450920       7.737430      11.262197
   182    5      11.031791       8.912945      12.469435
   183    6       9.761642       1.826291       9.081913
END_CFG
