BEGIN_CFG
 Size
    183
 Supercell
        15.337000      0.000000      0.000000
         0.000000     15.337000      0.000000
         0.000000      0.000000     30.200001
 AtomData:  id type       cartes_x      cartes_y      cartes_z           fx          fy          fz
             1    0       2.016355      1.782466      2.424154     0.002743   -0.000838    0.104245
             2    0       0.738323      0.504281      4.181492     0.011110   -0.010345   -0.009527
             3    0       2.021524      1.783509      5.956558    -0.022116   -0.000674   -0.121778
             4    0       0.736041      0.508113      7.693488    -0.006734    0.002790   -0.001164
             5    0       2.016355      4.338531      2.424154     0.006024    0.002101    0.111835
             6    0       0.738323      3.060498      4.181492     0.026647    0.011620   -0.011046
             7    0       2.023502      4.340141      5.954383    -0.007251   -0.013691   -0.087779
             8    0       0.742491      3.057661      7.693791     0.005728    0.012321    0.004019
             9    0       2.016355      6.894748      2.424154     0.004115   -0.000384    0.109372
            10    0       0.738323      5.616716      4.181492     0.010277    0.012449    0.012466
            11    0       2.017076      6.894963      5.958581    -0.040300    0.001952   -0.106522
            12    0       0.750385      5.610729      7.698472     0.009406    0.003067    0.000928
            13    0       4.572573      1.782466      2.424154     0.003258    0.000448    0.122886
            14    0       3.294541      0.504281      4.181492     0.006394   -0.024414   -0.011821
            15    0       4.576515      1.781914      5.935508     0.010642    0.009548    0.054286
            16    0       3.292958      0.508320      7.691792    -0.004452    0.005580   -0.001350
            17    0       4.572573      4.338531      2.424154     0.007709    0.001420    0.113369
            18    0       3.294541      3.060498      4.181492     0.021718    0.030415   -0.005814
            19    0       4.594106      4.319283      5.976792    -0.116231    0.134080   -0.254972
            20    0       3.296655      3.058282      7.691755    -0.006368   -0.002192    0.007289
            21    0       4.572573      6.894748      2.424154     0.002192   -0.008143    0.119433
            22    0       3.294541      5.616716      4.181492     0.047295   -0.027879    0.044647
            23    0       4.574720      6.894227      5.955108    -0.013185   -0.023820   -0.085743
            24    0       3.292638      5.616769      7.691925     0.005912   -0.011414    0.003322
            25    0       7.128791      1.782466      2.424154    -0.001724   -0.000777    0.079510
            26    0       5.850605      0.504281      4.181492     0.048060    0.012845    0.008429
            27    0       7.139036      1.784092      5.967852     0.014782    0.031519   -0.000655
            28    0       5.840610      0.514162      7.701808    -0.012064   -0.003313    0.004484
            29    0       7.128791      4.338531      2.424154    -0.000899   -0.001314    0.087928
            30    0       5.850605      3.060498      4.181492     0.074207    0.015588    0.035772
            31    0       7.127288      4.300372      6.005995     0.083236    0.208642   -0.362905
            32    0       5.845998      3.050612      7.706096    -0.001832   -0.005916    0.001475
            33    0       7.128791      6.894748      2.424154    -0.002858   -0.010979    0.119100
            34    0       5.850605      5.616716      4.181492     0.047150   -0.088586    0.109494
            35    0       7.128193      6.893843      5.951967    -0.016587   -0.056230   -0.063642
            36    0       5.842852      5.621243      7.697000     0.024527   -0.007197   -0.005697
            37    0       9.684855      1.782466      2.424154     0.000827    0.000853    0.059502
            38    0       8.406823      0.504281      4.181492    -0.025342   -0.015941   -0.001466
            39    0       9.678675      1.779659      5.928049     0.044344    0.009884   -0.088047
            40    0       8.373225      0.466342      7.762078     0.012346   -0.005094    0.003498
            41    0       9.684855      4.338531      2.424154    -0.000575    0.000012    0.093493
            42    0       8.406823      3.060498      4.181492    -0.046973    0.016358    0.009062
            43    0       9.677202      4.342994      5.954625    -0.105437   -0.165645   -0.144935
            44    0       8.399947      3.146959      7.807131    -0.004032   -0.023993    0.018964
            45    0       9.684855      6.894748      2.424154    -0.001923   -0.005752    0.110027
            46    0       8.406823      5.616716      4.181492    -0.074922   -0.068140    0.070611
            47    0       9.684380      6.900270      5.949098    -0.109272    0.067329   -0.146512
            48    0       8.395739      5.634914      7.712666     0.011217    0.016900    0.009645
            49    0      12.241073      1.782466      2.424154     0.000601    0.002961    0.096592
            50    0      10.963041      0.504281      4.181492    -0.005457   -0.012636   -0.040498
            51    0      12.239938      1.780902      5.953628    -0.034494    0.000373   -0.036016
            52    0      11.035129      0.434589      7.800136    -0.013957    0.007815   -0.007704
            53    0      12.241073      4.338531      2.424154    -0.004372   -0.004629    0.113282
            54    0      10.963041      3.060498      4.181492    -0.001625    0.008836    0.031715
            55    0      12.237776      4.340310      5.958188     0.051616   -0.079864   -0.271965
            56    0      10.999425      3.089800      7.714740    -0.020030    0.013798    0.004673
            57    0      12.241073      6.894748      2.424154    -0.000863   -0.007191    0.109927
            58    0      10.963041      5.616716      4.181492     0.003503   -0.013584    0.096008
            59    0      12.243420      6.903107      5.951212     0.035538    0.025166   -0.190581
            60    0      10.907444      5.606283      7.615803     0.004569   -0.020559   -0.007361
            61    0      14.797291      1.782466      2.424154    -0.003390    0.000795    0.121955
            62    0      13.519105      0.504281      4.181492    -0.031773   -0.021200    0.020602
            63    0      14.797091      1.783110      5.945535     0.075673   -0.027073   -0.106261
            64    0      13.539716      0.515212      7.697422    -0.000996   -0.004795   -0.002878
            65    0      14.797291      4.338531      2.424154    -0.004272   -0.001335    0.122392
            66    0      13.519105      3.060498      4.181492    -0.020761    0.012761    0.046559
            67    0      14.801785      4.343147      5.951605     0.085181   -0.036936   -0.186539
            68    0      13.557254      3.048043      7.639537    -0.000457    0.000276   -0.001329
            69    0      14.797291      6.894748      2.424154     0.000259   -0.003214    0.107369
            70    0      13.519105      5.616716      4.181492    -0.007610   -0.006464    0.093611
            71    0      14.794638      6.895822      5.958641     0.086436    0.108211   -0.189435
            72    0      13.550773      5.638966      7.623697     0.002205   -0.003530    0.006685
            73    0       2.016355      9.450966      2.424154     0.001709   -0.000145    0.108737
            74    0       0.738323      8.172781      4.181492    -0.005563    0.000073    0.008753
            75    0       2.016095      9.452101      5.955229    -0.030977   -0.026247   -0.056707
            76    0       0.730130      8.163703      7.706981     0.003172   -0.005083   -0.009607
            77    0       2.016355     12.007030      2.424154     0.001657    0.001453    0.108757
            78    0       0.738323     10.728998      4.181492     0.000811   -0.003018    0.005646
            79    0       2.015236     12.008257      5.957433    -0.028986   -0.022647   -0.088654
            80    0       0.724955     10.719584      7.700353    -0.002042    0.002375    0.002440
            81    0       2.016355     14.563248      2.424154     0.003610   -0.001801    0.109703
            82    0       0.738323     13.285216      4.181492    -0.002704    0.004978    0.005162
            83    0       2.018441     14.563356      5.954444    -0.012160    0.010535   -0.084470
            84    0       0.729803     13.284423      7.695617    -0.000760    0.001292   -0.006925
            85    0       4.572573      9.450966      2.424154    -0.001895   -0.001071    0.105159
            86    0       3.294541      8.172781      4.181492    -0.003540   -0.003039    0.008807
            87    0       4.573969      9.450782      5.957705    -0.001308   -0.013220   -0.098113
            88    0       3.294174      8.171662      7.691612     0.004424    0.006385   -0.000172
            89    0       4.572573     12.007030      2.424154    -0.000041    0.006179    0.116990
            90    0       3.294541     10.728998      4.181492    -0.007666   -0.000981    0.001117
            91    0       4.572236     12.005681      5.951997    -0.010570    0.024358   -0.081935
            92    0       3.296390     10.731617      7.689656    -0.010912   -0.000680    0.004371
            93    0       4.572573     14.563248      2.424154     0.003039   -0.000130    0.107795
            94    0       3.294541     13.285216      4.181492     0.024473    0.025709    0.031144
            95    0       4.587036     14.579076      5.972292    -0.123717   -0.121000   -0.222785
            96    0       3.290896     13.286832      7.689906    -0.005458    0.003976    0.001362
            97    0       7.128791      9.450966      2.424154    -0.002343   -0.000387    0.102618
            98    0       5.850605      8.172781      4.181492    -0.008908   -0.016981   -0.007628
            99    0       7.131644      9.450383      5.953538    -0.025219   -0.045275   -0.085625
           100    0       5.862088      8.173341      7.699520     0.002472    0.001567   -0.009198
           101    0       7.128791     12.007030      2.424154     0.000484    0.008844    0.118042
           102    0       5.850605     10.728998      4.181492    -0.015131   -0.004114   -0.017332
           103    0       7.130846     12.005313      5.949551    -0.080817    0.074818   -0.079976
           104    0       5.853553     10.725532      7.700617    -0.001008    0.003859   -0.003559
           105    0       7.128791     14.563248      2.424154     0.003380    0.004029    0.099857
           106    0       5.850605     13.285216      4.181492     0.014056    0.056867    0.058617
           107    0       7.113623     14.586821      5.978513     0.159024   -0.115901   -0.175305
           108    0       5.833699     13.269436      7.695930     0.018356    0.000246   -0.002901
           109    0       9.684855      9.450966      2.424154    -0.001234    0.002227    0.095029
           110    0       8.406823      8.172781      4.181492    -0.017043   -0.006671   -0.019506
           111    0       9.685423      9.454218      5.955229    -0.059509   -0.091520   -0.170103
           112    0       8.404181      8.181338      7.705653     0.017340    0.002625    0.007895
           113    0       9.684855     12.007030      2.424154    -0.002141    0.006785    0.111380
           114    0       8.406823     10.728998      4.181492    -0.010849    0.002905   -0.002288
           115    0       9.685469     12.008810      5.949068    -0.109870    0.045459   -0.292390
           116    0       8.388497     10.732829      7.678737    -0.002085   -0.004782    0.006982
           117    0       9.684855     14.563248      2.424154    -0.004075   -0.000968    0.080662
           118    0       8.406823     13.285216      4.181492    -0.013815    0.093783    0.103232
           119    0       9.688659     14.579291      5.973892    -0.066323   -0.022619   -0.150483
           120    0       8.393474     13.261669      7.694135     0.005087   -0.002797    0.008867
           121    0      12.241073      9.450966      2.424154     0.000466    0.003247    0.095201
           122    0      10.963041      8.172781      4.181492     0.013192    0.012859    0.020615
           123    0      12.239739      9.453558      5.955350     0.118142   -0.066913   -0.134197
           124    0      10.967965      8.160666      7.697205    -0.000235   -0.004793   -0.008791
           125    0      12.241073     12.007030      2.424154    -0.000912    0.008411    0.113624
           126    0      10.963041     10.728998      4.181492     0.008759    0.007657    0.049486
           127    0      12.240291     12.009699      5.954142     0.105356    0.133593   -0.241397
           128    0      10.965718     10.733644      7.633986     0.000206   -0.000290    0.011605
           129    0      12.241073     14.563248      2.424154    -0.002415    0.003564    0.094583
           130    0      10.963041     13.285216      4.181492    -0.009911    0.078576    0.105180
           131    0      12.224494     14.583892      5.980959     0.061937   -0.063654   -0.159163
           132    0      10.945879     13.262825      7.696310     0.009111    0.003605    0.010486
           133    0      14.797291      9.450966      2.424154     0.002854    0.002055    0.101954
           134    0      13.519105      8.172781      4.181492     0.020847    0.002915    0.013372
           135    0      14.794177      9.451503      5.958188    -0.013517   -0.019432   -0.044807
           136    0      13.524035      8.204714      7.732094    -0.003032   -0.010754    0.016598
           137    0      14.797291     12.007030      2.424154    -0.001641    0.004475    0.108999
           138    0      13.519105     10.728998      4.181492     0.015000    0.007461    0.001525
           139    0      14.793625     12.008641      5.958007     0.013911    0.008859   -0.093607
           140    0      13.509725     10.754544      7.705920     0.004302   -0.017542   -0.000220
           141    0      14.797291     14.563248      2.424154    -0.005426    0.001162    0.116384
           142    0      13.519105     13.285216      4.181492    -0.039122    0.057096    0.059434
           143    0      14.794331     14.562037      5.954655    -0.010659    0.010812   -0.096022
           144    0      13.514619     13.306083      7.700213     0.004431    0.013625    0.003605
           145    1      12.426510      3.554408     10.764283     0.004721    0.005002    0.001692
           146    1       9.689062     10.961854     10.958889    -0.001623    0.000772   -0.003702
           147    1      13.087340      6.969903     11.102902     0.021414    0.010759   -0.031919
           148    1       9.452398     13.413544     11.207121    -0.006969    0.008742    0.005891
           149    1      10.517485     12.043164     13.003877    -0.001503    0.027379    0.013573
           150    1      11.686316     12.463801     10.875903    -0.011899    0.001706   -0.001924
           151    1      12.398743      6.030235     10.089545     0.009290   -0.010378    0.016342
           152    1      11.727654      4.791137     10.641512    -0.013198   -0.019540   -0.010523
           153    1      10.298480      4.739127     10.835650    -0.034526    0.017848   -0.000976
           154    1      10.297516      2.509146     10.476313    -0.005288    0.006658    0.000442
           155    1      11.658817      2.390692     10.891688    -0.004377    0.010304   -0.007318
           156    1      10.640386      9.792364     10.518437    -0.004841   -0.014203   -0.024313
           157    1      11.102269      8.602835     11.427802     0.013685   -0.014589    0.003649
           158    2      13.606745      5.531872      8.785835    -0.017726   -0.002314   -0.002272
           159    3      14.067509      6.668962     11.760313    -0.038158   -0.028424    0.005886
           160    4      10.333366     12.210204     11.518944    -0.004305    0.008511   -0.000520
           161    4       9.579494      3.555053     10.951757    -0.004839   -0.003949    0.001418
           162    4      12.458208      8.193959     11.145182     0.025996    0.004591    0.000873
           163    5       9.151028     11.296216     10.051305     0.017390   -0.017151    0.021393
           164    5       8.422332     13.197192     11.498928     0.009972   -0.017460   -0.017586
           165    5       9.519045     13.621423     10.125386    -0.012663   -0.017157    0.004782
           166    5       9.837531     14.276713     11.754895     0.012778   -0.003814    0.011559
           167    5      10.968869     11.065531     13.200242    -0.026599    0.012060    0.019571
           168    5       9.543590     12.114731     13.491337     0.004727   -0.008315   -0.005338
           169    5      11.172628     12.839002     13.361663     0.011769   -0.009225    0.004692
           170    5      12.026653     13.468279     11.134203     0.008915    0.012009    0.002439
           171    5      11.543063     12.389280      9.783419    -0.005983   -0.004244   -0.017503
           172    5      12.399094     11.710502     11.228242     0.016853    0.015546    0.001270
           173    5      11.678170      6.640931      9.503641    -0.011567   -0.012062    0.002827
           174    5       9.733316      5.676983     10.896745     0.006318    0.000914    0.002926
           175    5      12.022197      1.467312     11.325510    -0.002597   -0.010936   -0.009572
           176    5      13.518419      3.472945     10.730342    -0.005823    0.017161   -0.002931
           177    5       8.962545     10.594004     11.684342     0.025095    0.011152   -0.025253
           178    5      13.054991      8.926269     10.904136     0.007575   -0.002970   -0.011975
           179    5      11.534576     10.207540     10.009368     0.002735    0.014642    0.002967
           180    5      10.052315      9.300718      9.706561     0.027980   -0.006728   -0.024976
           181    5      10.450920      7.737430     11.262197     0.016950    0.007966    0.009820
           182    5      11.031791      8.912945     12.469435    -0.017991    0.001680    0.017720
           183    6       9.761642      1.826291      9.081913    -0.014067   -0.011815    0.000437
 Energy
       -772.297448262318
 PlusStress:  xx          yy          zz          yz          xz          xy
      -116.27635  -117.09189   -15.08297    -0.34793     0.01388     0.15784
END_CFG

